 Entering Gaussian System, Link 0=g03
 Input=H2O.gjf
 Output=H2O.log
 Initial command:
 /apps/gaussian/g16-c01-avx/g16/l1.exe "/var/tmp/pbs.7073120.pbs/Gau-1946671.inp" -scrdir="/var/tmp/pbs.7073120.pbs/"
 Entering Link 1 = /apps/gaussian/g16-c01-avx/g16/l1.exe PID=   1946674.
  
 Copyright (c) 1988-2019, Gaussian, Inc.  All Rights Reserved.
  
 This is part of the Gaussian(R) 16 program.  It is based on
 the Gaussian(R) 09 system (copyright 2009, Gaussian, Inc.),
 the Gaussian(R) 03 system (copyright 2003, Gaussian, Inc.),
 the Gaussian(R) 98 system (copyright 1998, Gaussian, Inc.),
 the Gaussian(R) 94 system (copyright 1995, Gaussian, Inc.),
 the Gaussian 92(TM) system (copyright 1992, Gaussian, Inc.),
 the Gaussian 90(TM) system (copyright 1990, Gaussian, Inc.),
 the Gaussian 88(TM) system (copyright 1988, Gaussian, Inc.),
 the Gaussian 86(TM) system (copyright 1986, Carnegie Mellon
 University), and the Gaussian 82(TM) system (copyright 1983,
 Carnegie Mellon University). Gaussian is a federally registered
 trademark of Gaussian, Inc.
  
 This software contains proprietary and confidential information,
 including trade secrets, belonging to Gaussian, Inc.
  
 This software is provided under written license and may be
 used, copied, transmitted, or stored only in accord with that
 written license.
  
 The following legend is applicable only to US Government
 contracts under FAR:
  
                    RESTRICTED RIGHTS LEGEND
  
 Use, reproduction and disclosure by the US Government is
 subject to restrictions as set forth in subparagraphs (a)
 and (c) of the Commercial Computer Software - Restricted
 Rights clause in FAR 52.227-19.
  
 Gaussian, Inc.
 340 Quinnipiac St., Bldg. 40, Wallingford CT 06492
  
  
 ---------------------------------------------------------------
 Warning -- This program may not be used in any manner that
 competes with the business of Gaussian, Inc. or will provide
 assistance to any competitor of Gaussian, Inc.  The licensee
 of this program is prohibited from giving any competitor of
 Gaussian, Inc. access to this program.  By using this program,
 the user acknowledges that Gaussian, Inc. is engaged in the
 business of creating and licensing software in the field of
 computational chemistry and represents and warrants to the
 licensee that it is not a competitor of Gaussian, Inc. and that
 it will not use this program in any manner prohibited above.
 ---------------------------------------------------------------
  

 Cite this work as:
 Gaussian 16, Revision C.01,
 M. J. Frisch, G. W. Trucks, H. B. Schlegel, G. E. Scuseria, 
 M. A. Robb, J. R. Cheeseman, G. Scalmani, V. Barone, 
 G. A. Petersson, H. Nakatsuji, X. Li, M. Caricato, A. V. Marenich, 
 J. Bloino, B. G. Janesko, R. Gomperts, B. Mennucci, H. P. Hratchian, 
 J. V. Ortiz, A. F. Izmaylov, J. L. Sonnenberg, D. Williams-Young, 
 F. Ding, F. Lipparini, F. Egidi, J. Goings, B. Peng, A. Petrone, 
 T. Henderson, D. Ranasinghe, V. G. Zakrzewski, J. Gao, N. Rega, 
 G. Zheng, W. Liang, M. Hada, M. Ehara, K. Toyota, R. Fukuda, 
 J. Hasegawa, M. Ishida, T. Nakajima, Y. Honda, O. Kitao, H. Nakai, 
 T. Vreven, K. Throssell, J. A. Montgomery, Jr., J. E. Peralta, 
 F. Ogliaro, M. J. Bearpark, J. J. Heyd, E. N. Brothers, K. N. Kudin, 
 V. N. Staroverov, T. A. Keith, R. Kobayashi, J. Normand, 
 K. Raghavachari, A. P. Rendell, J. C. Burant, S. S. Iyengar, 
 J. Tomasi, M. Cossi, J. M. Millam, M. Klene, C. Adamo, R. Cammi, 
 J. W. Ochterski, R. L. Martin, K. Morokuma, O. Farkas, 
 J. B. Foresman, and D. J. Fox, Gaussian, Inc., Wallingford CT, 2019.
 
 ******************************************
 Gaussian 16:  ES64L-G16RevC.01  3-Jul-2019
                23-Feb-2023 
 ******************************************
 %chk=H2O.chk
 ---------------------------
 # p opt pbe1pbe/aug-cc-pvtz
 ---------------------------
 1/18=20,19=15,26=3,38=1/1,3;
 2/9=110,12=2,17=6,18=5,40=1/2;
 3/5=16,6=1,7=10,11=2,25=1,30=1,71=1,74=-13/1,2,3;
 4//1;
 5/5=2,38=5/2;
 6/7=2,8=2,9=2,10=2,28=1/1;
 7//1,2,3,16;
 1/18=20,19=15,26=3/3(2);
 2/9=110/2;
 99//99;
 2/9=110/2;
 3/5=16,6=1,7=10,11=2,25=1,30=1,71=1,74=-13/1,2,3;
 4/5=5,16=3,69=1/1;
 5/5=2,38=5/2;
 7//1,2,3,16;
 1/18=20,19=15,26=3/3(-5);
 2/9=110/2;
 6/7=2,8=2,9=2,10=2,19=2,28=1/1;
 99/9=1/99;
 -----
 water
 -----
 Symbolic Z-matrix:
 Charge =  0 Multiplicity = 1
 O                    -5.47846  -2.97275  -1.22616 
 H                    -4.51846  -2.97275  -1.22616 
 H                    -5.79891  -2.06782  -1.22616 
 

 GradGradGradGradGradGradGradGradGradGradGradGradGradGradGradGradGradGrad
 Berny optimization.
 Initialization pass.
                           ----------------------------
                           !    Initial Parameters    !
                           ! (Angstroms and Degrees)  !
 --------------------------                            --------------------------
 ! Name  Definition              Value          Derivative Info.                !
 --------------------------------------------------------------------------------
 ! R1    R(1,2)                  0.96           estimate D2E/DX2                !
 ! R2    R(1,3)                  0.96           estimate D2E/DX2                !
 ! A1    A(2,1,3)              109.5            estimate D2E/DX2                !
 --------------------------------------------------------------------------------
 Trust Radius=3.00D-01 FncErr=1.00D-07 GrdErr=1.00D-06 EigMax=2.50D+02 EigMin=1.00D-04
 Number of steps in this run=     20 maximum allowed number of steps=    100.
 GradGradGradGradGradGradGradGradGradGradGradGradGradGradGradGradGradGrad

                          Input orientation:                          
 ---------------------------------------------------------------------
 Center     Atomic      Atomic             Coordinates (Angstroms)
 Number     Number       Type             X           Y           Z
 ---------------------------------------------------------------------
      1          8           0       -5.478456   -2.972753   -1.226158
      2          1           0       -4.518456   -2.972753   -1.226158
      3          1           0       -5.798911   -2.067817   -1.226158
 ---------------------------------------------------------------------
                    Distance matrix (angstroms):
                    1          2          3
     1  O    0.000000
     2  H    0.960000   0.000000
     3  H    0.960000   1.567952   0.000000
 Stoichiometry    H2O
 Framework group  C2V[C2(O),SGV(H2)]
 Deg. of freedom     2
 Full point group                 C2V     NOp   4
 Largest Abelian subgroup         C2V     NOp   4
 Largest concise Abelian subgroup C2      NOp   2
                         Standard orientation:                         
 ---------------------------------------------------------------------
 Center     Atomic      Atomic             Coordinates (Angstroms)
 Number     Number       Type             X           Y           Z
 ---------------------------------------------------------------------
      1          8           0       -0.000000    0.000000    0.110812
      2          1           0       -0.000000    0.783976   -0.443248
      3          1           0       -0.000000   -0.783976   -0.443248
 ---------------------------------------------------------------------
 Rotational constants (GHZ):         919.6759719         407.9403295         282.5913772
 Standard basis: Aug-CC-pVTZ (5D, 7F)
 There are    42 symmetry adapted cartesian basis functions of A1  symmetry.
 There are    12 symmetry adapted cartesian basis functions of A2  symmetry.
 There are    20 symmetry adapted cartesian basis functions of B1  symmetry.
 There are    31 symmetry adapted cartesian basis functions of B2  symmetry.
 There are    35 symmetry adapted basis functions of A1  symmetry.
 There are    12 symmetry adapted basis functions of A2  symmetry.
 There are    18 symmetry adapted basis functions of B1  symmetry.
 There are    27 symmetry adapted basis functions of B2  symmetry.
    92 basis functions,   126 primitive gaussians,   105 cartesian basis functions
     5 alpha electrons        5 beta electrons
       nuclear repulsion energy         9.1571160246 Hartrees.
 NAtoms=    3 NActive=    3 NUniq=    2 SFac= 2.25D+00 NAtFMM=   60 NAOKFM=F Big=F
 Integral buffers will be    131072 words long.
 Raffenetti 2 integral format.
 Two-electron integral symmetry is turned on.
 One-electron integrals computed using PRISM.
 NBasis=    92 RedAO= T EigKep=  3.77D-04  NBF=    35    12    18    27
 NBsUse=    92 1.00D-06 EigRej= -1.00D+00 NBFU=    35    12    18    27
 ExpMin= 2.53D-02 ExpMax= 1.53D+04 ExpMxC= 5.22D+02 IAcc=3 IRadAn=         5 AccDes= 0.00D+00
 Harris functional with IExCor= 1009 and IRadAn=       5 diagonalized for initial guess.
 HarFok:  IExCor= 1009 AccDes= 0.00D+00 IRadAn=         5 IDoV= 1 UseB2=F ITyADJ=14
 ICtDFT=  3500011 ScaDFX=  1.000000  1.000000  1.000000  1.000000
 FoFCou: FMM=F IPFlag=           0 FMFlag=      100000 FMFlg1=           0
         NFxFlg=           0 DoJE=T BraDBF=F KetDBF=T FulRan=T
         wScrn=  0.000000 ICntrl=       500 IOpCl=  0 I1Cent=   200000004 NGrid=           0
         NMat0=    1 NMatS0=      1 NMatT0=    0 NMatD0=    1 NMtDS0=    0 NMtDT0=    0
 Petite list used in FoFCou.
 Initial guess orbital symmetries:
       Occupied  (A1) (A1) (B2) (A1) (B1)
       Virtual   (A1) (B2) (A1) (B1) (A1) (B2) (B2) (A1) (A2) (A1)
                 (B1) (B2) (A1) (B2) (B2) (A1) (A1) (B1) (A2) (A1)
                 (A1) (B1) (B1) (B2) (A2) (B2) (A1) (B2) (A1) (B1)
                 (B2) (A1) (A2) (B2) (A2) (A1) (B1) (A1) (B2) (B2)
                 (A1) (B1) (A2) (A1) (A1) (B1) (B2) (A1) (B1) (B2)
                 (A1) (A2) (B2) (B2) (A1) (B1) (A2) (A1) (B2) (B1)
                 (B1) (A2) (B2) (A1) (A1) (B2) (B2) (A2) (A1) (B2)
                 (B1) (A1) (A1) (B2) (B1) (A1) (B1) (A1) (B1) (A2)
                 (A2) (B2) (A1) (B2) (A1) (B2) (A1)
 The electronic state of the initial guess is 1-A1.
 Keep R1 ints in memory in symmetry-blocked form, NReq=11496777.
 Requested convergence on RMS density matrix=1.00D-08 within 128 cycles.
 Requested convergence on MAX density matrix=1.00D-06.
 Requested convergence on             energy=1.00D-06.
 No special actions if energy rises.
 SCF Done:  E(RPBE1PBE) =  -76.3794673193     A.U. after    8 cycles
            NFock=  8  Conv=0.13D-08     -V/T= 2.0056

 **********************************************************************

            Population analysis using the SCF Density.

 **********************************************************************

 Orbital symmetries:
       Occupied  (A1) (A1) (B2) (A1) (B1)
       Virtual   (A1) (B2) (A1) (B1) (A1) (B2) (B2) (A1) (A2) (B1)
                 (A1) (B2) (A1) (B2) (B2) (A1) (A1) (A2) (B1) (A1)
                 (B1) (A1) (B2) (B1) (A2) (B2) (A1) (A1) (B2) (B1)
                 (B2) (A1) (A2) (B2) (A2) (A1) (B1) (A1) (B2) (B2)
                 (A1) (B1) (A2) (A1) (A1) (B1) (B2) (A1) (B2) (B1)
                 (A1) (A2) (B2) (B2) (A1) (B1) (A2) (A1) (B2) (B1)
                 (A2) (B1) (A1) (B2) (A1) (B2) (B2) (A2) (A1) (B2)
                 (B1) (A1) (A1) (B2) (B1) (A1) (B1) (B1) (A1) (A2)
                 (A2) (B2) (A1) (B2) (A1) (B2) (A1)
 The electronic state is 1-A1.
 Alpha  occ. eigenvalues --  -19.21246  -1.04157  -0.55906  -0.40131  -0.33267
 Alpha virt. eigenvalues --   -0.01213   0.02814   0.08744   0.10655   0.11324
 Alpha virt. eigenvalues --    0.12758   0.16453   0.18153   0.20258   0.23785
 Alpha virt. eigenvalues --    0.24135   0.31728   0.34310   0.36355   0.48815
 Alpha virt. eigenvalues --    0.52871   0.58870   0.60239   0.60528   0.69808
 Alpha virt. eigenvalues --    0.72795   0.74764   0.78320   0.78521   0.80273
 Alpha virt. eigenvalues --    0.82103   0.84688   0.89796   0.90677   0.93555
 Alpha virt. eigenvalues --    1.00522   1.04774   1.05820   1.12152   1.34566
 Alpha virt. eigenvalues --    1.40106   1.41584   1.58589   1.59556   1.77629
 Alpha virt. eigenvalues --    1.87635   2.00140   2.06711   2.07731   2.13994
 Alpha virt. eigenvalues --    2.17226   2.18895   2.22766   2.45053   2.45789
 Alpha virt. eigenvalues --    2.49641   2.62755   2.63231   3.32861   3.46303
 Alpha virt. eigenvalues --    3.69088   3.72221   3.93543   3.94183   4.05708
 Alpha virt. eigenvalues --    4.09374   4.09665   4.15224   4.16327   4.31468
 Alpha virt. eigenvalues --    4.44252   4.79942   4.83984   4.94827   4.97130
 Alpha virt. eigenvalues --    5.12449   5.35811   5.71108   6.10544   6.26399
 Alpha virt. eigenvalues --    6.39799   6.67604   6.77872   6.78755   6.85040
 Alpha virt. eigenvalues --    6.86800   6.94363   7.08257   7.41074   7.48507
 Alpha virt. eigenvalues --    8.27225  15.07513
          Condensed to atoms (all electrons):
               1          2          3
     1  O    7.822046   0.263268   0.263268
     2  H    0.263268   0.554724   0.007717
     3  H    0.263268   0.007717   0.554724
 Mulliken charges:
               1
     1  O   -0.348582
     2  H    0.174291
     3  H    0.174291
 Sum of Mulliken charges =  -0.00000
 Mulliken charges with hydrogens summed into heavy atoms:
               1
     1  O   -0.000000
 Electronic spatial extent (au):  <R**2>=             19.9116
 Charge=             -0.0000 electrons
 Dipole moment (field-independent basis, Debye):
    X=             -0.0000    Y=             -0.0000    Z=             -1.7824  Tot=              1.7824
 Quadrupole moment (field-independent basis, Debye-Ang):
   XX=             -7.7420   YY=             -4.2119   ZZ=             -6.5645
   XY=              0.0000   XZ=              0.0000   YZ=             -0.0000
 Traceless Quadrupole moment (field-independent basis, Debye-Ang):
   XX=             -1.5692   YY=              1.9609   ZZ=             -0.3917
   XY=              0.0000   XZ=              0.0000   YZ=             -0.0000
 Octapole moment (field-independent basis, Debye-Ang**2):
  XXX=              0.0000  YYY=             -0.0000  ZZZ=             -0.8816  XYY=             -0.0000
  XXY=             -0.0000  XXZ=             -0.1920  XZZ=              0.0000  YZZ=              0.0000
  YYZ=             -1.3215  XYZ=             -0.0000
 Hexadecapole moment (field-independent basis, Debye-Ang**3):
 XXXX=             -7.5574 YYYY=             -6.3820 ZZZZ=             -7.8990 XXXY=             -0.0000
 XXXZ=             -0.0000 YYYX=             -0.0000 YYYZ=             -0.0000 ZZZX=             -0.0000
 ZZZY=             -0.0000 XXYY=             -2.7026 XXZZ=             -2.6130 YYZZ=             -2.1452
 XXYZ=              0.0000 YYXZ=              0.0000 ZZXY=             -0.0000
 N-N= 9.157116024600D+00 E-N=-1.989317851878D+02  KE= 7.595193481632D+01
 Symmetry A1   KE= 6.782913519865D+01
 Symmetry A2   KE= 8.692377436413D-20
 Symmetry B1   KE= 4.480196200699D+00
 Symmetry B2   KE= 3.642603416970D+00
 Calling FoFJK, ICntrl=      2127 FMM=F ISym2X=1 I1Cent= 0 IOpClX= 0 NMat=1 NMatS=1 NMatT=0.
 ***** Axes restored to original set *****
 -------------------------------------------------------------------
 Center     Atomic                   Forces (Hartrees/Bohr)
 Number     Number              X              Y              Z
 -------------------------------------------------------------------
      1        8          -0.004069196   -0.005757779    0.000000000
      2        1          -0.003548875    0.006824898    0.000000000
      3        1           0.007618071   -0.001067119   -0.000000000
 -------------------------------------------------------------------
 Cartesian Forces:  Max     0.007618071 RMS     0.004321238

 GradGradGradGradGradGradGradGradGradGradGradGradGradGradGradGradGradGrad
 Berny optimization.
 FormGI is forming the generalized inverse of G from B-inverse, IUseBI=4.
 Internal  Forces:  Max     0.012381301 RMS     0.007713314
 Search for a local minimum.
 Step number   1 out of a maximum of   20
 All quantities printed in internal units (Hartrees-Bohrs-Radians)
 Mixed Optimization -- RFO/linear search
 Second derivative matrix not updated -- first step.
 The second derivative matrix:
                          R1        R2        A1
           R1           0.55473
           R2           0.00000   0.55473
           A1           0.00000   0.00000   0.16000
 ITU=  0
     Eigenvalues ---    0.16000   0.55473   0.55473
 RFO step:  Lambda=-9.97493771D-04 EMin= 1.60000000D-01
 Linear search not attempted -- first point.
 Iteration  1 RMS(Cart)=  0.04479425 RMS(Int)=  0.00110542
 Iteration  2 RMS(Cart)=  0.00091129 RMS(Int)=  0.00000008
 Iteration  3 RMS(Cart)=  0.00000008 RMS(Int)=  0.00000000
 ClnCor:  largest displacement from symmetrization is 1.99D-15 for atom     3.
 Variable       Old X    -DE/DX   Delta X   Delta X   Delta X     New X
                                 (Linear)    (Quad)   (Total)
    R1        1.81414  -0.00355   0.00000  -0.00639  -0.00639   1.80775
    R2        1.81414  -0.00355   0.00000  -0.00639  -0.00639   1.80775
    A1        1.91114  -0.01238   0.00000  -0.07690  -0.07690   1.83423
         Item               Value     Threshold  Converged?
 Maximum Force            0.012381     0.000450     NO 
 RMS     Force            0.007713     0.000300     NO 
 Maximum Displacement     0.047965     0.001800     NO 
 RMS     Displacement     0.045210     0.001200     NO 
 Predicted change in Energy=-5.017371D-04
 GradGradGradGradGradGradGradGradGradGradGradGradGradGradGradGradGradGrad

                          Input orientation:                          
 ---------------------------------------------------------------------
 Center     Atomic      Atomic             Coordinates (Angstroms)
 Number     Number       Type             X           Y           Z
 ---------------------------------------------------------------------
      1          8           0       -5.489104   -2.987819   -1.226158
      2          1           0       -4.533190   -2.951045   -1.226158
      3          1           0       -5.773529   -2.074460   -1.226158
 ---------------------------------------------------------------------
                    Distance matrix (angstroms):
                    1          2          3
     1  O    0.000000
     2  H    0.956621   0.000000
     3  H    0.956621   1.518829   0.000000
 Stoichiometry    H2O
 Framework group  C2V[C2(O),SGV(H2)]
 Deg. of freedom     2
 Full point group                 C2V     NOp   4
 Largest Abelian subgroup         C2V     NOp   4
 Largest concise Abelian subgroup C2      NOp   2
                         Standard orientation:                         
 ---------------------------------------------------------------------
 Center     Atomic      Atomic             Coordinates (Angstroms)
 Number     Number       Type             X           Y           Z
 ---------------------------------------------------------------------
      1          8           0       -0.000000    0.000000    0.116347
      2          1           0        0.000000    0.759414   -0.465386
      3          1           0       -0.000000   -0.759414   -0.465386
 ---------------------------------------------------------------------
 Rotational constants (GHZ):         834.2581748         434.7548442         285.8109234
 Standard basis: Aug-CC-pVTZ (5D, 7F)
 There are    42 symmetry adapted cartesian basis functions of A1  symmetry.
 There are    12 symmetry adapted cartesian basis functions of A2  symmetry.
 There are    20 symmetry adapted cartesian basis functions of B1  symmetry.
 There are    31 symmetry adapted cartesian basis functions of B2  symmetry.
 There are    35 symmetry adapted basis functions of A1  symmetry.
 There are    12 symmetry adapted basis functions of A2  symmetry.
 There are    18 symmetry adapted basis functions of B1  symmetry.
 There are    27 symmetry adapted basis functions of B2  symmetry.
    92 basis functions,   126 primitive gaussians,   105 cartesian basis functions
     5 alpha electrons        5 beta electrons
       nuclear repulsion energy         9.1991872094 Hartrees.
 NAtoms=    3 NActive=    3 NUniq=    2 SFac= 2.25D+00 NAtFMM=   60 NAOKFM=F Big=F
 Integral buffers will be    131072 words long.
 Raffenetti 2 integral format.
 Two-electron integral symmetry is turned on.
 One-electron integrals computed using PRISM.
 NBasis=    92 RedAO= T EigKep=  3.83D-04  NBF=    35    12    18    27
 NBsUse=    92 1.00D-06 EigRej= -1.00D+00 NBFU=    35    12    18    27
 Initial guess from the checkpoint file:  "H2O.chk"
 B after Tr=     0.000000    0.000000    0.000000
         Rot=    1.000000   -0.000000   -0.000000    0.000000 Ang=   0.00 deg.
 Initial guess orbital symmetries:
       Occupied  (A1) (A1) (B2) (A1) (B1)
       Virtual   (A1) (B2) (A1) (B1) (A1) (B2) (B2) (A1) (A2) (B1)
                 (A1) (B2) (A1) (B2) (B2) (A1) (A1) (A2) (B1) (A1)
                 (B1) (A1) (B2) (B1) (A2) (B2) (A1) (A1) (B2) (B1)
                 (B2) (A1) (A2) (B2) (A2) (A1) (B1) (A1) (B2) (B2)
                 (A1) (B1) (A2) (A1) (A1) (B1) (B2) (A1) (B2) (B1)
                 (A1) (A2) (B2) (B2) (A1) (B1) (A2) (A1) (B2) (B1)
                 (A2) (B1) (A1) (B2) (A1) (B2) (B2) (A2) (A1) (B2)
                 (B1) (A1) (A1) (B2) (B1) (A1) (B1) (B1) (A1) (A2)
                 (A2) (B2) (A1) (B2) (A1) (B2) (A1)
 ExpMin= 2.53D-02 ExpMax= 1.53D+04 ExpMxC= 5.22D+02 IAcc=3 IRadAn=         5 AccDes= 0.00D+00
 Harris functional with IExCor= 1009 and IRadAn=       5 diagonalized for initial guess.
 HarFok:  IExCor= 1009 AccDes= 0.00D+00 IRadAn=         5 IDoV= 1 UseB2=F ITyADJ=14
 ICtDFT=  3500011 ScaDFX=  1.000000  1.000000  1.000000  1.000000
 FoFCou: FMM=F IPFlag=           0 FMFlag=      100000 FMFlg1=           0
         NFxFlg=           0 DoJE=T BraDBF=F KetDBF=T FulRan=T
         wScrn=  0.000000 ICntrl=       500 IOpCl=  0 I1Cent=   200000004 NGrid=           0
         NMat0=    1 NMatS0=      1 NMatT0=    0 NMatD0=    1 NMtDS0=    0 NMtDT0=    0
 Petite list used in FoFCou.
 Keep R1 ints in memory in symmetry-blocked form, NReq=11496777.
 Requested convergence on RMS density matrix=1.00D-08 within 128 cycles.
 Requested convergence on MAX density matrix=1.00D-06.
 Requested convergence on             energy=1.00D-06.
 No special actions if energy rises.
 SCF Done:  E(RPBE1PBE) =  -76.3799740333     A.U. after    7 cycles
            NFock=  7  Conv=0.19D-08     -V/T= 2.0053
 Calling FoFJK, ICntrl=      2127 FMM=F ISym2X=1 I1Cent= 0 IOpClX= 0 NMat=1 NMatS=1 NMatT=0.
 ***** Axes restored to original set *****
 -------------------------------------------------------------------
 Center     Atomic                   Forces (Hartrees/Bohr)
 Number     Number              X              Y              Z
 -------------------------------------------------------------------
      1        8          -0.001722069   -0.002436672    0.000000000
      2        1           0.002168028    0.000294644    0.000000000
      3        1          -0.000445959    0.002142028   -0.000000000
 -------------------------------------------------------------------
 Cartesian Forces:  Max     0.002436672 RMS     0.001432838

 GradGradGradGradGradGradGradGradGradGradGradGradGradGradGradGradGradGrad
 Berny optimization.
 Using GEDIIS/GDIIS optimizer.
 FormGI is forming the generalized inverse of G from B-inverse, IUseBI=4.
 Internal  Forces:  Max     0.002177752 RMS     0.001791723
 Search for a local minimum.
 Step number   2 out of a maximum of   20
 All quantities printed in internal units (Hartrees-Bohrs-Radians)
 Mixed Optimization -- RFO/linear search
 Update second derivatives using D2CorX and points    1    2
 DE= -5.07D-04 DEPred=-5.02D-04 R= 1.01D+00
 TightC=F SS=  1.41D+00  RLast= 7.74D-02 DXNew= 5.0454D-01 2.3230D-01
 Trust test= 1.01D+00 RLast= 7.74D-02 DXMaxT set to 3.00D-01
 The second derivative matrix:
                          R1        R2        A1
           R1           0.57500
           R2           0.02027   0.57500
           A1           0.02503   0.02503   0.15188
 ITU=  1  0
 Use linear search instead of GDIIS.
     Eigenvalues ---    0.14907   0.55473   0.59808
 RFO step:  Lambda=-1.80563979D-05 EMin= 1.49068949D-01
 Quartic linear search produced a step of  0.00147.
 Iteration  1 RMS(Cart)=  0.00249411 RMS(Int)=  0.00000527
 Iteration  2 RMS(Cart)=  0.00000592 RMS(Int)=  0.00000000
 Iteration  3 RMS(Cart)=  0.00000000 RMS(Int)=  0.00000000
 ClnCor:  largest displacement from symmetrization is 4.44D-15 for atom     1.
 Variable       Old X    -DE/DX   Delta X   Delta X   Delta X     New X
                                 (Linear)    (Quad)   (Total)
    R1        1.80775   0.00218  -0.00001   0.00383   0.00382   1.81157
    R2        1.80775   0.00218  -0.00001   0.00383   0.00382   1.81157
    A1        1.83423  -0.00038  -0.00011  -0.00365  -0.00376   1.83047
         Item               Value     Threshold  Converged?
 Maximum Force            0.002178     0.000450     NO 
 RMS     Force            0.001792     0.000300     NO 
 Maximum Displacement     0.002736     0.001800     NO 
 RMS     Displacement     0.002494     0.001200     NO 
 Predicted change in Energy=-9.031857D-06
 GradGradGradGradGradGradGradGradGradGradGradGradGradGradGradGradGradGrad

                          Input orientation:                          
 ---------------------------------------------------------------------
 Center     Atomic      Atomic             Coordinates (Angstroms)
 Number     Number       Type             X           Y           Z
 ---------------------------------------------------------------------
      1          8           0       -5.490127   -2.989267   -1.226158
      2          1           0       -4.532267   -2.950612   -1.226158
      3          1           0       -5.773430   -2.073445   -1.226158
 ---------------------------------------------------------------------
                    Distance matrix (angstroms):
                    1          2          3
     1  O    0.000000
     2  H    0.958640   0.000000
     3  H    0.958640   1.519838   0.000000
 Stoichiometry    H2O
 Framework group  C2V[C2(O),SGV(H2)]
 Deg. of freedom     2
 Full point group                 C2V     NOp   4
 Largest Abelian subgroup         C2V     NOp   4
 Largest concise Abelian subgroup C2      NOp   2
                         Standard orientation:                         
 ---------------------------------------------------------------------
 Center     Atomic      Atomic             Coordinates (Angstroms)
 Number     Number       Type             X           Y           Z
 ---------------------------------------------------------------------
      1          8           0        0.000000    0.000000    0.116878
      2          1           0       -0.000000    0.759919   -0.467514
      3          1           0       -0.000000   -0.759919   -0.467514
 ---------------------------------------------------------------------
 Rotational constants (GHZ):         826.6815788         434.1776169         284.6682953
 Standard basis: Aug-CC-pVTZ (5D, 7F)
 There are    42 symmetry adapted cartesian basis functions of A1  symmetry.
 There are    12 symmetry adapted cartesian basis functions of A2  symmetry.
 There are    20 symmetry adapted cartesian basis functions of B1  symmetry.
 There are    31 symmetry adapted cartesian basis functions of B2  symmetry.
 There are    35 symmetry adapted basis functions of A1  symmetry.
 There are    12 symmetry adapted basis functions of A2  symmetry.
 There are    18 symmetry adapted basis functions of B1  symmetry.
 There are    27 symmetry adapted basis functions of B2  symmetry.
    92 basis functions,   126 primitive gaussians,   105 cartesian basis functions
     5 alpha electrons        5 beta electrons
       nuclear repulsion energy         9.1803084635 Hartrees.
 NAtoms=    3 NActive=    3 NUniq=    2 SFac= 2.25D+00 NAtFMM=   60 NAOKFM=F Big=F
 Integral buffers will be    131072 words long.
 Raffenetti 2 integral format.
 Two-electron integral symmetry is turned on.
 One-electron integrals computed using PRISM.
 NBasis=    92 RedAO= T EigKep=  3.85D-04  NBF=    35    12    18    27
 NBsUse=    92 1.00D-06 EigRej= -1.00D+00 NBFU=    35    12    18    27
 Initial guess from the checkpoint file:  "H2O.chk"
 B after Tr=     0.000000   -0.000000   -0.000000
         Rot=    1.000000   -0.000000   -0.000000   -0.000000 Ang=   0.00 deg.
 Initial guess orbital symmetries:
       Occupied  (A1) (A1) (B2) (A1) (B1)
       Virtual   (A1) (B2) (A1) (B1) (A1) (B2) (B2) (A1) (A2) (B1)
                 (A1) (B2) (A1) (B2) (B2) (A1) (A1) (A2) (B1) (A1)
                 (B1) (A1) (B1) (B2) (A2) (B2) (A1) (A1) (B2) (B1)
                 (B2) (A1) (A2) (B2) (A2) (A1) (B1) (A1) (B2) (B2)
                 (A1) (B1) (A2) (A1) (A1) (B1) (B2) (A1) (B2) (B1)
                 (A1) (B2) (A2) (B2) (A1) (B1) (A2) (A1) (B2) (B1)
                 (A2) (A1) (B1) (B2) (A1) (B2) (A2) (B2) (B2) (A1)
                 (B1) (A1) (A1) (B2) (B1) (A1) (B1) (B1) (A1) (A2)
                 (B2) (A2) (A1) (A1) (B2) (B2) (A1)
 Keep R1 ints in memory in symmetry-blocked form, NReq=11496777.
 Requested convergence on RMS density matrix=1.00D-08 within 128 cycles.
 Requested convergence on MAX density matrix=1.00D-06.
 Requested convergence on             energy=1.00D-06.
 No special actions if energy rises.
 SCF Done:  E(RPBE1PBE) =  -76.3799838498     A.U. after    6 cycles
            NFock=  6  Conv=0.42D-08     -V/T= 2.0054
 Calling FoFJK, ICntrl=      2127 FMM=F ISym2X=1 I1Cent= 0 IOpClX= 0 NMat=1 NMatS=1 NMatT=0.
 ***** Axes restored to original set *****
 -------------------------------------------------------------------
 Center     Atomic                   Forces (Hartrees/Bohr)
 Number     Number              X              Y              Z
 -------------------------------------------------------------------
      1        8          -0.000151400   -0.000214227    0.000000000
      2        1           0.000200134    0.000019172    0.000000000
      3        1          -0.000048733    0.000195054   -0.000000000
 -------------------------------------------------------------------
 Cartesian Forces:  Max     0.000214227 RMS     0.000128952

 GradGradGradGradGradGradGradGradGradGradGradGradGradGradGradGradGradGrad
 Berny optimization.
 Using GEDIIS/GDIIS optimizer.
 FormGI is forming the generalized inverse of G from B-inverse, IUseBI=4.
 Internal  Forces:  Max     0.000200744 RMS     0.000164317
 Search for a local minimum.
 Step number   3 out of a maximum of   20
 All quantities printed in internal units (Hartrees-Bohrs-Radians)
 Mixed Optimization -- En-DIIS/RFO-DIIS
 Update second derivatives using D2CorX and points    1    2    3
 DE= -9.82D-06 DEPred=-9.03D-06 R= 1.09D+00
 TightC=F SS=  1.41D+00  RLast= 6.58D-03 DXNew= 5.0454D-01 1.9743D-02
 Trust test= 1.09D+00 RLast= 6.58D-03 DXMaxT set to 3.00D-01
 The second derivative matrix:
                          R1        R2        A1
           R1           0.55002
           R2          -0.00471   0.55002
           A1           0.02770   0.02770   0.15219
 ITU=  1  1  0
 Use linear search instead of GDIIS.
     Eigenvalues ---    0.14833   0.54918   0.55473
 RFO step:  Lambda= 0.00000000D+00 EMin= 1.48325731D-01
 Quartic linear search produced a step of  0.09843.
 Iteration  1 RMS(Cart)=  0.00023879 RMS(Int)=  0.00000004
 Iteration  2 RMS(Cart)=  0.00000004 RMS(Int)=  0.00000000
 ClnCor:  largest displacement from symmetrization is 3.97D-15 for atom     1.
 Variable       Old X    -DE/DX   Delta X   Delta X   Delta X     New X
                                 (Linear)    (Quad)   (Total)
    R1        1.81157   0.00020   0.00038   0.00001   0.00038   1.81195
    R2        1.81157   0.00020   0.00038   0.00001   0.00038   1.81195
    A1        1.83047  -0.00002  -0.00037   0.00009  -0.00028   1.83019
         Item               Value     Threshold  Converged?
 Maximum Force            0.000201     0.000450     YES
 RMS     Force            0.000164     0.000300     YES
 Maximum Displacement     0.000236     0.001800     YES
 RMS     Displacement     0.000239     0.001200     YES
 Predicted change in Energy=-7.937869D-08
 Optimization completed.
    -- Stationary point found.
                           ----------------------------
                           !   Optimized Parameters   !
                           ! (Angstroms and Degrees)  !
 --------------------------                            --------------------------
 ! Name  Definition              Value          Derivative Info.                !
 --------------------------------------------------------------------------------
 ! R1    R(1,2)                  0.9586         -DE/DX =    0.0002              !
 ! R2    R(1,3)                  0.9586         -DE/DX =    0.0002              !
 ! A1    A(2,1,3)              104.878          -DE/DX =    0.0                 !
 --------------------------------------------------------------------------------
 GradGradGradGradGradGradGradGradGradGradGradGradGradGradGradGradGradGrad

                          Input orientation:                          
 ---------------------------------------------------------------------
 Center     Atomic      Atomic             Coordinates (Angstroms)
 Number     Number       Type             X           Y           Z
 ---------------------------------------------------------------------
      1          8           0       -5.490127   -2.989267   -1.226158
      2          1           0       -4.532267   -2.950612   -1.226158
      3          1           0       -5.773430   -2.073445   -1.226158
 ---------------------------------------------------------------------
                    Distance matrix (angstroms):
                    1          2          3
     1  O    0.000000
     2  H    0.958640   0.000000
     3  H    0.958640   1.519838   0.000000
 Stoichiometry    H2O
 Framework group  C2V[C2(O),SGV(H2)]
 Deg. of freedom     2
 Full point group                 C2V     NOp   4
 Largest Abelian subgroup         C2V     NOp   4
 Largest concise Abelian subgroup C2      NOp   2
                         Standard orientation:                         
 ---------------------------------------------------------------------
 Center     Atomic      Atomic             Coordinates (Angstroms)
 Number     Number       Type             X           Y           Z
 ---------------------------------------------------------------------
      1          8           0        0.000000    0.000000    0.116878
      2          1           0       -0.000000    0.759919   -0.467514
      3          1           0       -0.000000   -0.759919   -0.467514
 ---------------------------------------------------------------------
 Rotational constants (GHZ):         826.6815788         434.1776169         284.6682953

 **********************************************************************

            Population analysis using the SCF Density.

 **********************************************************************

 Orbital symmetries:
       Occupied  (A1) (A1) (B2) (A1) (B1)
       Virtual   (A1) (B2) (A1) (B1) (A1) (B2) (B2) (A1) (A2) (B1)
                 (A1) (B2) (A1) (B2) (B2) (A1) (A1) (A2) (B1) (A1)
                 (B1) (A1) (B1) (B2) (A2) (B2) (A1) (A1) (B2) (B1)
                 (B2) (A1) (A2) (B2) (A2) (A1) (B1) (A1) (B2) (B2)
                 (A1) (B1) (A2) (A1) (A1) (B1) (B2) (A1) (B2) (B1)
                 (A1) (B2) (A2) (B2) (A1) (B1) (A2) (A1) (B2) (B1)
                 (A2) (A1) (B1) (B2) (A1) (B2) (A2) (B2) (B2) (A1)
                 (B1) (A1) (A1) (B2) (B1) (A1) (B1) (B1) (A1) (A2)
                 (B2) (A2) (A1) (A1) (B2) (B2) (A1)
 The electronic state is 1-A1.
 Alpha  occ. eigenvalues --  -19.21404  -1.04533  -0.55149  -0.41000  -0.33374
 Alpha virt. eigenvalues --   -0.01246   0.02859   0.08696   0.10705   0.11496
 Alpha virt. eigenvalues --    0.12824   0.16301   0.18321   0.20435   0.23330
 Alpha virt. eigenvalues --    0.23816   0.31858   0.34399   0.36263   0.48629
 Alpha virt. eigenvalues --    0.53485   0.58560   0.60565   0.60735   0.70114
 Alpha virt. eigenvalues --    0.72744   0.74774   0.78127   0.78396   0.80555
 Alpha virt. eigenvalues --    0.82392   0.83611   0.89668   0.90598   0.93262
 Alpha virt. eigenvalues --    1.00286   1.05637   1.06472   1.12110   1.34178
 Alpha virt. eigenvalues --    1.37266   1.40520   1.58990   1.63500   1.76418
 Alpha virt. eigenvalues --    1.88221   2.00761   2.06472   2.08105   2.14856
 Alpha virt. eigenvalues --    2.18181   2.19427   2.23238   2.43707   2.44992
 Alpha virt. eigenvalues --    2.50463   2.58904   2.63286   3.34653   3.44211
 Alpha virt. eigenvalues --    3.68948   3.73431   3.89472   3.96672   4.01266
 Alpha virt. eigenvalues --    4.08895   4.10326   4.10481   4.18301   4.34127
 Alpha virt. eigenvalues --    4.48335   4.82946   4.83931   4.92526   4.96177
 Alpha virt. eigenvalues --    5.14921   5.31037   5.75626   6.08554   6.26800
 Alpha virt. eigenvalues --    6.45323   6.67883   6.76941   6.82804   6.85699
 Alpha virt. eigenvalues --    6.86827   6.87510   7.07222   7.43203   7.45575
 Alpha virt. eigenvalues --    8.31658  15.07327
          Condensed to atoms (all electrons):
               1          2          3
     1  O    7.826731   0.260374   0.260374
     2  H    0.260374   0.557035   0.008851
     3  H    0.260374   0.008851   0.557035
 Mulliken charges:
               1
     1  O   -0.347479
     2  H    0.173740
     3  H    0.173740
 Sum of Mulliken charges =   0.00000
 Mulliken charges with hydrogens summed into heavy atoms:
               1
     1  O    0.000000
 Electronic spatial extent (au):  <R**2>=             19.8773
 Charge=              0.0000 electrons
 Dipole moment (field-independent basis, Debye):
    X=             -0.0000    Y=              0.0000    Z=             -1.8536  Tot=              1.8536
 Quadrupole moment (field-independent basis, Debye-Ang):
   XX=             -7.7300   YY=             -4.4080   ZZ=             -6.4256
   XY=              0.0000   XZ=              0.0000   YZ=             -0.0000
 Traceless Quadrupole moment (field-independent basis, Debye-Ang):
   XX=             -1.5421   YY=              1.7799   ZZ=             -0.2378
   XY=              0.0000   XZ=              0.0000   YZ=             -0.0000
 Octapole moment (field-independent basis, Debye-Ang**2):
  XXX=              0.0000  YYY=              0.0000  ZZZ=             -0.9635  XYY=             -0.0000
  XXY=              0.0000  XXZ=             -0.1996  XZZ=              0.0000  YZZ=              0.0000
  YYZ=             -1.3101  XYZ=             -0.0000
 Hexadecapole moment (field-independent basis, Debye-Ang**3):
 XXXX=             -7.5218 YYYY=             -6.5096 ZZZZ=             -7.8894 XXXY=             -0.0000
 XXXZ=             -0.0000 YYYX=             -0.0000 YYYZ=              0.0000 ZZZX=             -0.0000
 ZZZY=              0.0000 XXYY=             -2.6700 XXZZ=             -2.6149 YYZZ=             -2.0963
 XXYZ=              0.0000 YYXZ=              0.0000 ZZXY=             -0.0000
 N-N= 9.180308463477D+00 E-N=-1.989773032002D+02  KE= 7.596624527373D+01
 Symmetry A1   KE= 6.781815341569D+01
 Symmetry A2   KE= 2.973072747124D-21
 Symmetry B1   KE= 4.483872764211D+00
 Symmetry B2   KE= 3.664219093835D+00
 Unable to Open any file for archive entry.
 1\1\GINC-CX3-4-0\FOpt\RPBE1PBE\Aug-CC-pVTZ\H2O1\ROOT\23-Feb-2023\0\\# 
 p opt pbe1pbe/aug-cc-pvtz\\water\\0,1\O,-5.4901273496,-2.9892674374,-1
 .22615776\H,-4.5322666028,-2.9506118775,-1.22615776\H,-5.7734295069,-2
 .073444665,-1.22615776\\Version=ES64L-G16RevC.01\State=1-A1\HF=-76.379
 9838\RMSD=4.205e-09\RMSF=1.290e-04\Dipole=0.4208888,0.5955439,0.\Quadr
 upole=0.8236246,0.3228987,-1.1465233,-0.7070032,0.,0.\PG=C02V [C2(O1),
 SGV(H2)]\\@
 The archive entry for this job was punched.


 COMMON SENSE IS NOT SO COMMON.   -- VOLTAIRE
 Job cpu time:       0 days  0 hours  0 minutes 19.9 seconds.
 Elapsed time:       0 days  0 hours  0 minutes 20.0 seconds.
 File lengths (MBytes):  RWF=     10 Int=      0 D2E=      0 Chk=      2 Scr=      1
 Normal termination of Gaussian 16 at Thu Feb 23 12:24:14 2023.
